ITEM: TIMESTEP
0
ITEM: NUMBER OF ATOMS
184
ITEM: BOX BOUNDS pp pp pp
1.2111744490000000e+00 1.3274074449000000e+01
-9.4788321499999995e-01 1.1115016785000000e+01
-1.4556818399999999e-01 1.1917331816000001e+01
ITEM: ATOMS id type x y z q 
41 2 6.3415 1.52408 2.99656 0.0508667 
49 2 6.71453 2.11108 0.146444 0.047192 
53 2 7.23364 -0.140083 0.95283 0.044771 
93 1 1.84494 2.49345 1.60303 -0.0910578 
95 2 1.37893 1.63706 1.13576 0.0523388 
96 2 2.21326 2.19072 2.57155 0.0394091 
107 1 3.02182 3.00132 0.691258 -0.0896515 
110 2 3.51743 3.86332 1.13787 0.0378534 
111 2 3.74542 2.18642 0.624202 0.0424676 
139 1 5.33831 -0.906748 3.82793 -0.0977257 
141 2 5.17802 -0.861713 2.75806 0.0489072 
154 2 2.90744 0.182504 3.36347 0.0404712 
38 1 7.30553 1.99117 3.02298 -0.0952441 
40 2 7.26555 2.93133 2.50509 0.0512021 
47 1 7.69392 1.71046 -0.0863629 -0.0880804 
48 1 8.0558 0.559894 0.924503 -0.0963513 
51 1 8.41062 1.04623 2.38855 -0.0906636 
52 2 8.94968 0.049388 0.59416 0.0497496 
54 2 9.34557 1.57269 2.35075 0.0507144 
55 2 8.53584 0.162647 2.99683 0.042702 
60 1 8.76436 2.87188 -0.0878151 -0.0930444 
63 2 8.81246 3.33069 0.885529 0.0512758 
86 2 13.1671 -0.619018 1.98268 0.0595823 
89 2 10.7513 -0.677364 1.50304 0.0412173 
92 2 11.8823 0.712765 0.0940448 0.0315442 
94 1 12.7931 3.61784 1.79303 -0.0847567 
97 1 11.5042 2.76415 2.13528 -0.170682 
98 2 12.62 4.13178 0.866735 0.0525242 
99 2 13.0578 4.31735 2.56813 0.039496 
100 2 11.6506 2.18236 3.04564 0.0555076 
101 2 11.3294 2.06755 1.3097 0.0567594 
102 2 10.632 3.41512 2.25805 0.0515021 
29 1 5.60336 2.2816 5.65875 -0.0900281 
30 1 4.66935 3.01243 6.69483 -0.0909103 
31 2 5.06469 2.21016 4.72144 0.0415393 
32 2 5.819 1.2867 6.01691 0.0536586 
34 2 3.76227 2.42908 6.79239 0.0420022 
35 2 4.3994 3.99401 6.32767 0.045473 
42 1 6.95257 3.07326 5.40605 -0.0935083 
45 2 6.75076 4.01539 4.92527 0.0453792 
142 2 5.62687 0.0684368 4.18177 0.0537922 
147 2 7.19562 -0.657247 5.78567 0.0402668 
148 1 1.53354 -0.562207 4.86328 -0.0917179 
149 1 2.97375 -0.126178 4.40284 -0.0923842 
153 2 3.32329 0.709823 4.99446 0.0493382 
165 2 1.67891 -0.359162 7.06825 0.0459688 
39 1 7.87797 2.17358 4.49309 -0.0932413 
43 2 8.84316 2.65168 4.40535 0.0407099 
44 2 8.01565 1.21183 4.95738 0.0474645 
46 2 7.48757 3.2401 6.33364 0.0510387 
112 1 11.843 3.62649 7.59872 -0.0962552 
114 2 11.5038 2.6751 7.22722 0.0449308 
115 2 12.68 3.96861 7.01931 0.0479161 
122 1 10.2174 4.78677 6.04272 -0.0919966 
125 1 10.6597 4.68222 7.55774 -0.0998745 
127 2 9.97419 3.79112 5.69431 0.0414949 
151 2 12.9335 0.291737 4.81765 0.036725 
13 2 3.57135 -0.721889 11.1887 0.0469873 
20 1 5.83534 1.81292 8.73305 -0.0934811 
21 1 4.61666 0.849502 9.05321 -0.103254 
22 2 6.55553 1.32905 8.09074 0.0521968 
23 2 6.32027 2.06113 9.66756 0.0421127 
24 1 5.23223 -0.420064 9.77261 -0.0949382 
25 2 4.09056 0.560805 8.15675 0.0551327 
26 2 3.94077 1.35236 9.72452 0.059064 
27 2 5.88759 -0.0951072 10.571 0.0468879 
33 1 5.34317 3.17485 8.11219 -0.0863794 
36 2 4.62407 3.63841 8.77759 0.0394447 
37 2 6.20312 3.8289 8.02943 0.0417612 
62 2 7.21964 4.17437 11.1306 0.0456135 
103 1 1.65574 2.16999 10.7323 -0.0897023 
104 1 2.51483 3.35953 11.3087 -0.0878974 
106 2 2.2025 1.24036 10.8352 0.0414616 
108 2 1.91732 4.26729 11.3299 0.0493962 
109 2 3.37731 3.54545 10.6663 0.0407141 
116 1 1.3422 2.40835 9.20995 -0.0951472 
119 2 2.21619 2.73525 8.66742 0.0497251 
50 2 7.6707 1.25474 10.9941 0.0390751 
57 1 8.24731 3.91891 10.9044 -0.095328 
58 2 10.1332 5.02932 10.5927 0.0493597 
61 2 8.30189 3.49997 9.90957 0.0455843 
64 2 9.7473 2.50401 11.7235 0.0447388 
74 1 10.7466 -0.059182 10.6445 -0.101887 
76 2 9.99781 0.578732 11.0777 0.0567768 
77 2 11.2634 0.524164 9.89242 0.0438279 
88 1 11.8166 -0.302526 11.7557 -0.0823636 
91 2 12.7564 -0.597043 11.3031 0.0451974 
105 2 12.796 2.03257 11.2891 0.0523349 
113 1 12.2423 3.48455 9.13134 -0.0949959 
117 2 11.4011 3.1232 9.69548 0.050476 
118 2 12.5703 4.42541 9.52731 0.0502264 
120 2 13.0501 1.47606 8.79314 0.0402788 
128 2 9.83902 4.32108 8.1563 0.0519623 
2 1 1.8203 7.24963 0.277541 -0.0839481 
6 2 1.67366 7.80055 1.19102 0.0433099 
7 2 2.36561 6.34491 0.483029 0.0409989 
15 1 3.89262 8.70406 -0.0560537 -0.0952567 
18 2 3.60161 9.34425 0.765509 0.0450467 
19 2 4.47404 7.87549 0.334319 0.039567 
87 2 1.41864 10.095 0.879428 0.0652464 
175 2 4.95491 6.85934 3.80114 0.0491642 
10 2 11.8692 6.34983 0.319202 0.0517215 
59 2 9.27697 5.47541 0.000648212 0.0443322 
83 2 12.6167 9.78743 2.41591 0.0505168 
84 1 12.7664 10.5046 1.59418 -0.176425 
85 1 11.4141 10.842 0.839285 -0.0802654 
90 2 10.9412 9.93497 0.495301 0.0463576 
144 2 7.30448 10.3141 3.47395 0.0432208 
140 1 6.48054 10.1256 4.1578 -0.0910121 
143 1 6.98212 10.3499 5.63824 -0.0895961 
145 2 6.13987 9.10855 4.00317 0.0471673 
146 2 6.21862 10.0667 6.35557 0.0483072 
152 1 3.98121 10.7259 4.53715 -0.0916953 
155 2 3.58082 9.84897 4.05231 0.0489473 
156 2 4.17199 10.5246 5.57861 0.0513716 
161 1 1.54924 10.9211 6.34276 -0.0974896 
164 2 2.32572 10.1893 6.44897 0.0594948 
166 1 2.39903 6.21849 7.06021 -0.0878855 
167 1 1.32391 7.33431 6.79683 -0.0927156 
168 2 2.34851 5.48872 6.25648 0.0402849 
172 2 1.55148 7.87889 5.88963 0.0544694 
176 1 4.5708 6.37299 4.69873 -0.173317 
177 1 4.36224 7.46597 5.83661 -0.0823688 
178 2 3.6315 5.87937 4.45667 0.062043 
179 2 5.29101 5.62904 5.02832 0.0585439 
180 1 3.86315 6.78664 7.17762 -0.0907846 
181 2 3.6656 8.21478 5.51245 0.0468839 
182 2 5.30674 7.94342 6.03494 0.0427784 
184 2 4.53536 5.98584 7.45582 0.0461199 
121 1 8.93025 5.68754 5.93696 -0.0888512 
123 2 8.21615 5.42273 6.70283 0.0455062 
124 2 8.46413 5.54092 4.96845 0.0405173 
126 2 11.0203 5.17699 5.43331 0.044837 
130 1 8.31223 9.55731 5.8922 -0.0938031 
131 1 7.98675 8.00386 5.88921 -0.0982957 
132 2 9.03956 9.78752 5.12652 0.0440038 
133 2 8.72233 9.83601 6.8542 0.0422402 
134 1 9.34795 7.20802 6.09661 -0.0980521 
135 2 7.55393 7.72342 4.94677 0.0508421 
136 2 7.31818 7.76577 6.69543 0.0523687 
137 2 9.74483 7.39436 7.07626 0.0548565 
138 2 10.0645 7.48802 5.34776 0.0481042 
150 2 13.2159 10.7424 4.19795 0.0448238 
171 2 12.4185 6.86223 6.67384 0.0484361 
158 1 12.2011 10.2055 6.53081 -0.0887382 
162 2 11.4196 10.9533 6.56371 0.0365958 
163 2 12.0138 9.53102 5.71142 0.0445521 
1 1 2.59659 8.1506 11.282 -0.0993921 
3 2 1.97051 8.97499 10.9893 0.05143 
4 2 2.85827 7.56132 10.4219 0.0523111 
11 1 4.07039 10.7801 10.4077 -0.0918935 
12 1 4.79147 9.50561 10.9957 -0.0917653 
14 2 3.33404 10.5009 9.66522 0.046775 
16 2 5.67489 9.82371 11.5477 0.0426797 
17 2 5.10359 8.86324 10.1791 0.041256 
28 2 5.80293 11.0577 9.0612 0.0497256 
169 2 2.16717 5.70184 7.99132 0.0434711 
170 1 1.27603 8.32297 8.02785 -0.0884389 
173 2 2.23341 8.81078 8.13898 0.0484942 
183 2 3.90214 7.53464 7.95793 0.0424934 
5 1 12.4762 6.93629 11.6886 -0.172655 
8 2 12.5866 6.37683 10.7588 0.0583883 
9 2 11.9601 7.87415 11.481 0.0590364 
56 1 9.15947 5.20857 11.0227 -0.0957346 
65 1 8.28045 8.90804 10.0353 -0.0968738 
66 1 9.19091 7.71496 10.5409 -0.0908998 
67 2 7.27158 8.74387 10.3945 0.0419869 
68 2 8.25986 8.94253 8.9523 0.0515782 
69 1 8.39738 6.37475 10.2688 -0.0966925 
70 2 9.36106 7.82382 11.6041 0.0433628 
71 2 10.1432 7.71077 10.03 0.0465467 
72 2 8.33106 6.17272 9.20864 0.0511278 
73 2 7.39901 6.45785 10.6809 0.0445935 
75 1 10.1577 10.6798 9.98066 -0.0900383 
78 1 8.79908 10.2594 10.6501 -0.0916918 
79 2 10.8806 9.88374 10.0891 0.0543965 
80 2 9.98941 10.8776 8.92434 0.0428493 
81 2 8.06004 11.0372 10.4771 0.0423198 
82 2 8.93474 10.1482 11.7199 0.0473159 
129 2 10.9882 5.63483 7.93784 0.0552465 
159 2 11.2416 8.96301 8.02703 0.0422069 
160 2 12.3831 10.1316 8.7018 0.045688 
174 2 13.136 7.75987 8.93219 0.0467217 
157 1 12.2158 9.42184 7.89811 -0.0925421 
